<?xml version="1.0" encoding="UTF-8"?>

<!-- generated on 2025-09-21 05:38:32 by Eclipse SUMO sumo Version 1.23.1
<sumoConfiguration xmlns:xsi="http://www.w3.org/2001/XMLSchema-instance" xsi:noNamespaceSchemaLocation="http://sumo.dlr.de/xsd/sumoConfiguration.xsd">

    <input>
        <net-file value="test.net.xml"/>
        <route-files value="trips.trips.xml"/>
        <additional-files value="map.poly.xml"/>
    </input>

    <output>
        <tripinfo-output value="tripinfo.xml"/>
    </output>

    <time>
        <begin value="0"/>
        <end value="10000"/>
    </time>

    <traci_server>
        <remote-port value="55739"/>
    </traci_server>

</sumoConfiguration>
-->

<tripinfos xmlns:xsi="http://www.w3.org/2001/XMLSchema-instance" xsi:noNamespaceSchemaLocation="http://sumo.dlr.de/xsd/tripinfo_file.xsd">
    <tripinfo id="13" depart="13.00" departLane="-523130478_0" departPos="5.10" departSpeed="0.00" departDelay="0.00" arrival="23.00" arrivalLane="-523130457#0_0" arrivalPos="73.41" arrivalSpeed="19.92" duration="10.00" routeLength="93.54" waitingTime="0.00" waitingCount="0" stopTime="0.00" timeLoss="4.64" rerouteNo="1" devices="tripinfo_13 routing_13" vType="DEFAULT_VEHTYPE" speedFactor="1.12" vaporized=""/>
    <tripinfo id="15" depart="15.00" departLane="524529905#0_0" departPos="5.10" departSpeed="0.00" departDelay="0.00" arrival="26.00" arrivalLane="524529904#2_0" arrivalPos="5.61" arrivalSpeed="13.85" duration="11.00" routeLength="102.03" waitingTime="0.00" waitingCount="0" stopTime="0.00" timeLoss="3.36" rerouteNo="1" devices="tripinfo_15 routing_15" vType="DEFAULT_VEHTYPE" speedFactor="0.93" vaporized=""/>
    <tripinfo id="4" depart="4.00" departLane="133632492#2_0" departPos="5.10" departSpeed="0.00" departDelay="0.00" arrival="28.00" arrivalLane="-133632492#2_1" arrivalPos="25.18" arrivalSpeed="11.00" duration="24.00" routeLength="197.91" waitingTime="0.00" waitingCount="0" stopTime="0.00" timeLoss="5.41" rerouteNo="1" devices="tripinfo_4 routing_4" vType="DEFAULT_VEHTYPE" speedFactor="1.03" vaporized=""/>
    <tripinfo id="22" depart="22.00" departLane="-523130478_0" departPos="5.10" departSpeed="0.00" departDelay="0.00" arrival="32.00" arrivalLane="-523130457#0_0" arrivalPos="73.41" arrivalSpeed="16.43" duration="10.00" routeLength="93.54" waitingTime="0.00" waitingCount="0" stopTime="0.00" timeLoss="3.88" rerouteNo="1" devices="tripinfo_22 routing_22" vType="DEFAULT_VEHTYPE" speedFactor="0.97" vaporized=""/>
    <tripinfo id="2" depart="2.00" departLane="524529905#0_0" departPos="5.10" departSpeed="0.00" departDelay="0.00" arrival="38.00" arrivalLane="133632492#2_0" arrivalPos="25.18" arrivalSpeed="10.03" duration="36.00" routeLength="173.45" waitingTime="11.00" waitingCount="1" stopTime="0.00" timeLoss="23.23" rerouteNo="1" devices="tripinfo_2 routing_2" vType="DEFAULT_VEHTYPE" speedFactor="1.01" vaporized=""/>
    <tripinfo id="25" depart="25.00" departLane="-740172328#0_0" departPos="5.10" departSpeed="0.00" departDelay="0.00" arrival="38.00" arrivalLane="-523130457#0_1" arrivalPos="73.41" arrivalSpeed="14.82" duration="13.00" routeLength="135.82" waitingTime="0.00" waitingCount="0" stopTime="0.00" timeLoss="3.61" rerouteNo="1" devices="tripinfo_25 routing_25" vType="DEFAULT_VEHTYPE" speedFactor="0.87" vaporized=""/>
    <tripinfo id="31" depart="31.00" departLane="523130457#0_0" departPos="5.10" departSpeed="0.00" departDelay="0.00" arrival="41.00" arrivalLane="523130478_0" arrivalPos="12.61" arrivalSpeed="17.17" duration="10.00" routeLength="93.61" waitingTime="0.00" waitingCount="0" stopTime="0.00" timeLoss="5.14" rerouteNo="1" devices="tripinfo_31 routing_31" vType="DEFAULT_VEHTYPE" speedFactor="1.15" vaporized=""/>
    <tripinfo id="6" depart="6.00" departLane="-133632492#2_0" departPos="5.10" departSpeed="0.00" departDelay="0.00" arrival="45.00" arrivalLane="-523130457#0_2" arrivalPos="73.41" arrivalSpeed="17.80" duration="39.00" routeLength="193.41" waitingTime="12.00" waitingCount="2" stopTime="0.00" timeLoss="26.49" rerouteNo="1" devices="tripinfo_6 routing_6" vType="DEFAULT_VEHTYPE" speedFactor="1.05" vaporized=""/>
    <tripinfo id="38" depart="38.00" departLane="533070744#2_0" departPos="5.10" departSpeed="0.00" departDelay="0.00" arrival="52.00" arrivalLane="-533070740_2" arrivalPos="15.64" arrivalSpeed="12.08" duration="14.00" routeLength="98.50" waitingTime="0.00" waitingCount="0" stopTime="0.00" timeLoss="7.88" rerouteNo="1" devices="tripinfo_38 routing_38" vType="DEFAULT_VEHTYPE" speedFactor="1.10" vaporized=""/>
    <tripinfo id="53" depart="53.00" departLane="-524529904#0_0" departPos="4.70" departSpeed="0.00" departDelay="0.00" arrival="62.00" arrivalLane="-524529905#0_0" arrivalPos="67.72" arrivalSpeed="15.88" duration="9.00" routeLength="80.51" waitingTime="0.00" waitingCount="0" stopTime="0.00" timeLoss="3.84" rerouteNo="1" devices="tripinfo_53 routing_53" vType="DEFAULT_VEHTYPE" speedFactor="1.10" vaporized=""/>
    <tripinfo id="57" depart="57.00" departLane="533070744#2_0" departPos="5.10" departSpeed="0.00" departDelay="0.00" arrival="64.00" arrivalLane="533070740_0" arrivalPos="15.64" arrivalSpeed="14.21" duration="7.00" routeLength="49.47" waitingTime="0.00" waitingCount="0" stopTime="0.00" timeLoss="4.32" rerouteNo="1" devices="tripinfo_57 routing_57" vType="DEFAULT_VEHTYPE" speedFactor="1.14" vaporized=""/>
    <tripinfo id="10" depart="12.00" departLane="524529905#0_0" departPos="5.10" departSpeed="0.00" departDelay="2.00" arrival="84.00" arrivalLane="523130478_0" arrivalPos="12.61" arrivalSpeed="11.05" duration="72.00" routeLength="379.52" waitingTime="27.00" waitingCount="2" stopTime="0.00" timeLoss="49.91" rerouteNo="1" devices="tripinfo_10 routing_10" vType="DEFAULT_VEHTYPE" speedFactor="1.09" vaporized=""/>
    <tripinfo id="115" depart="115.00" departLane="-523130478_0" departPos="5.10" departSpeed="0.00" departDelay="0.00" arrival="125.00" arrivalLane="-523130457#0_0" arrivalPos="73.41" arrivalSpeed="15.57" duration="10.00" routeLength="93.54" waitingTime="0.00" waitingCount="0" stopTime="0.00" timeLoss="3.89" rerouteNo="1" devices="tripinfo_115 routing_115" vType="DEFAULT_VEHTYPE" speedFactor="0.92" vaporized=""/>
    <tripinfo id="130" depart="130.00" departLane="533070740_0" departPos="5.10" departSpeed="0.00" departDelay="0.00" arrival="133.00" arrivalLane="533070740_0" arrivalPos="15.64" arrivalSpeed="5.98" duration="3.00" routeLength="10.54" waitingTime="0.00" waitingCount="0" stopTime="0.00" timeLoss="2.39" rerouteNo="1" devices="tripinfo_130 routing_130" vType="DEFAULT_VEHTYPE" speedFactor="1.03" vaporized=""/>
    <tripinfo id="131" depart="131.00" departLane="-740172328#0_0" departPos="5.10" departSpeed="0.00" departDelay="0.00" arrival="144.00" arrivalLane="-523130457#0_1" arrivalPos="73.41" arrivalSpeed="18.48" duration="13.00" routeLength="135.82" waitingTime="0.00" waitingCount="0" stopTime="0.00" timeLoss="4.96" rerouteNo="1" devices="tripinfo_131 routing_131" vType="DEFAULT_VEHTYPE" speedFactor="1.07" vaporized=""/>
    <tripinfo id="158" depart="158.00" departLane="133632492#2_0" departPos="5.10" departSpeed="0.00" departDelay="0.00" arrival="162.00" arrivalLane="133632492#2_0" arrivalPos="25.18" arrivalSpeed="7.50" duration="4.00" routeLength="20.08" waitingTime="0.00" waitingCount="0" stopTime="0.00" timeLoss="2.03" rerouteNo="1" devices="tripinfo_158 routing_158" vType="DEFAULT_VEHTYPE" speedFactor="0.91" vaporized=""/>
    <tripinfo id="182" depart="182.00" departLane="-740172328#0_0" departPos="5.10" departSpeed="0.00" departDelay="0.00" arrival="186.00" arrivalLane="-740172328#0_0" arrivalPos="19.04" arrivalSpeed="7.84" duration="4.00" routeLength="13.94" waitingTime="0.00" waitingCount="0" stopTime="0.00" timeLoss="2.86" rerouteNo="1" devices="tripinfo_182 routing_182" vType="DEFAULT_VEHTYPE" speedFactor="1.03" vaporized=""/>
    <tripinfo id="179" depart="179.00" departLane="-524529904#0_0" departPos="4.70" departSpeed="0.00" departDelay="0.00" arrival="188.00" arrivalLane="-524529905#0_0" arrivalPos="67.72" arrivalSpeed="15.48" duration="9.00" routeLength="80.51" waitingTime="0.00" waitingCount="0" stopTime="0.00" timeLoss="3.94" rerouteNo="1" devices="tripinfo_179 routing_179" vType="DEFAULT_VEHTYPE" speedFactor="1.06" vaporized=""/>
    <tripinfo id="187" depart="187.00" departLane="-740172328#0_0" departPos="5.10" departSpeed="0.00" departDelay="0.00" arrival="199.00" arrivalLane="-523130457#0_1" arrivalPos="73.41" arrivalSpeed="15.90" duration="12.00" routeLength="135.82" waitingTime="0.00" waitingCount="0" stopTime="0.00" timeLoss="3.23" rerouteNo="1" devices="tripinfo_187 routing_187" vType="DEFAULT_VEHTYPE" speedFactor="0.89" vaporized=""/>
    <tripinfo id="193" depart="193.00" departLane="-524529904#2_0" departPos="5.10" departSpeed="0.00" departDelay="0.00" arrival="204.00" arrivalLane="-524529905#0_0" arrivalPos="67.72" arrivalSpeed="16.43" duration="11.00" routeLength="101.26" waitingTime="0.00" waitingCount="0" stopTime="0.00" timeLoss="3.97" rerouteNo="1" devices="tripinfo_193 routing_193" vType="DEFAULT_VEHTYPE" speedFactor="1.07" vaporized=""/>
    <tripinfo id="210" depart="210.00" departLane="133632492#2_0" departPos="5.10" departSpeed="0.00" departDelay="0.00" arrival="215.00" arrivalLane="133632492#2_0" arrivalPos="25.18" arrivalSpeed="8.96" duration="5.00" routeLength="20.08" waitingTime="0.00" waitingCount="0" stopTime="0.00" timeLoss="2.67" rerouteNo="1" devices="tripinfo_210 routing_210" vType="DEFAULT_VEHTYPE" speedFactor="1.10" vaporized=""/>
    <tripinfo id="215" depart="215.00" departLane="-524529904#0_0" departPos="4.70" departSpeed="0.00" departDelay="0.00" arrival="224.00" arrivalLane="-524529905#0_0" arrivalPos="67.72" arrivalSpeed="16.06" duration="9.00" routeLength="80.51" waitingTime="0.00" waitingCount="0" stopTime="0.00" timeLoss="3.72" rerouteNo="1" devices="tripinfo_215 routing_215" vType="DEFAULT_VEHTYPE" speedFactor="1.09" vaporized=""/>
    <tripinfo id="219" depart="219.00" departLane="133632492#4_0" departPos="2.44" departSpeed="0.00" departDelay="0.00" arrival="227.00" arrivalLane="533018345#1_0" arrivalPos="43.54" arrivalSpeed="9.25" duration="8.00" routeLength="58.35" waitingTime="0.00" waitingCount="0" stopTime="0.00" timeLoss="2.25" rerouteNo="1" devices="tripinfo_219 routing_219" vType="DEFAULT_VEHTYPE" speedFactor="0.91" vaporized=""/>
    <tripinfo id="243" depart="243.00" departLane="133632492#2_0" departPos="5.10" departSpeed="0.00" departDelay="0.00" arrival="255.00" arrivalLane="533018345#1_0" arrivalPos="43.54" arrivalSpeed="10.33" duration="12.00" routeLength="94.08" waitingTime="0.00" waitingCount="0" stopTime="0.00" timeLoss="2.60" rerouteNo="1" devices="tripinfo_243 routing_243" vType="DEFAULT_VEHTYPE" speedFactor="0.99" vaporized=""/>
    <tripinfo id="33" depart="34.00" departLane="-533018345#1_0" departPos="5.10" departSpeed="0.00" departDelay="1.00" arrival="278.00" arrivalLane="-133632492#2_0" arrivalPos="25.18" arrivalSpeed="7.42" duration="244.00" routeLength="94.06" waitingTime="228.00" waitingCount="1" stopTime="0.00" timeLoss="236.75" rerouteNo="1" devices="tripinfo_33 routing_33" vType="DEFAULT_VEHTYPE" speedFactor="1.17" vaporized=""/>
    <tripinfo id="304" depart="304.00" departLane="-523130478_0" departPos="5.10" departSpeed="0.00" departDelay="0.00" arrival="314.00" arrivalLane="-523130457#0_0" arrivalPos="73.41" arrivalSpeed="16.83" duration="10.00" routeLength="93.54" waitingTime="0.00" waitingCount="0" stopTime="0.00" timeLoss="3.90" rerouteNo="1" devices="tripinfo_304 routing_304" vType="DEFAULT_VEHTYPE" speedFactor="0.98" vaporized=""/>
    <tripinfo id="14" depart="14.00" departLane="533070740_0" departPos="5.10" departSpeed="0.00" departDelay="0.00" arrival="361.00" arrivalLane="-740172328#0_0" arrivalPos="19.04" arrivalSpeed="16.81" duration="347.00" routeLength="152.38" waitingTime="317.00" waitingCount="2" stopTime="0.00" timeLoss="335.58" rerouteNo="1" devices="tripinfo_14 routing_14" vType="DEFAULT_VEHTYPE" speedFactor="0.99" vaporized=""/>
    <tripinfo id="18" depart="18.00" departLane="524529905#0_0" departPos="5.10" departSpeed="0.00" departDelay="0.00" arrival="366.00" arrivalLane="133632492#0_0" arrivalPos="0.20" arrivalSpeed="0.00" duration="348.00" routeLength="144.30" waitingTime="323.00" waitingCount="3" stopTime="0.00" timeLoss="338.15" rerouteNo="1" devices="tripinfo_18 routing_18" vType="DEFAULT_VEHTYPE" speedFactor="0.94" vaporized="teleport"/>
    <tripinfo id="11" depart="11.00" departLane="-533070744#3_0" departPos="5.10" departSpeed="0.00" departDelay="0.00" arrival="370.00" arrivalLane="-523130457#0_1" arrivalPos="73.41" arrivalSpeed="14.94" duration="359.00" routeLength="209.44" waitingTime="331.00" waitingCount="2" stopTime="0.00" timeLoss="345.75" rerouteNo="1" devices="tripinfo_11 routing_11" vType="DEFAULT_VEHTYPE" speedFactor="1.03" vaporized=""/>
    <tripinfo id="46" depart="46.00" departLane="524529905#0_0" departPos="5.10" departSpeed="0.00" departDelay="0.00" arrival="370.00" arrivalLane="-524529905#0_0" arrivalPos="67.72" arrivalSpeed="15.24" duration="324.00" routeLength="228.66" waitingTime="301.00" waitingCount="1" stopTime="0.00" timeLoss="305.59" rerouteNo="1" devices="tripinfo_46 routing_46" vType="DEFAULT_VEHTYPE" speedFactor="1.00" vaporized=""/>
    <tripinfo id="3" depart="3.00" departLane="533070744#2_0" departPos="5.10" departSpeed="0.00" departDelay="0.00" arrival="372.00" arrivalLane="-523130457#0_1" arrivalPos="73.41" arrivalSpeed="15.77" duration="369.00" routeLength="313.19" waitingTime="328.00" waitingCount="2" stopTime="0.00" timeLoss="350.48" rerouteNo="1" devices="tripinfo_3 routing_3" vType="DEFAULT_VEHTYPE" speedFactor="1.08" vaporized=""/>
    <tripinfo id="195" depart="195.00" departLane="533070744#2_0" departPos="5.10" departSpeed="0.00" departDelay="0.00" arrival="376.00" arrivalLane="1060905398_0" arrivalPos="4.71" arrivalSpeed="10.97" duration="181.00" routeLength="63.83" waitingTime="169.00" waitingCount="1" stopTime="0.00" timeLoss="176.23" rerouteNo="1" devices="tripinfo_195 routing_195" vType="DEFAULT_VEHTYPE" speedFactor="0.84" vaporized=""/>
    <tripinfo id="222" depart="222.00" departLane="533070744#2_0" departPos="5.10" departSpeed="0.00" departDelay="0.00" arrival="378.00" arrivalLane="1060905398_0" arrivalPos="4.71" arrivalSpeed="12.00" duration="156.00" routeLength="63.83" waitingTime="142.00" waitingCount="1" stopTime="0.00" timeLoss="151.17" rerouteNo="1" devices="tripinfo_222 routing_222" vType="DEFAULT_VEHTYPE" speedFactor="0.84" vaporized=""/>
    <tripinfo id="167" depart="376.00" departLane="533070740_0" departPos="5.10" departSpeed="0.00" departDelay="209.00" arrival="379.00" arrivalLane="533070740_0" arrivalPos="15.64" arrivalSpeed="5.49" duration="3.00" routeLength="10.54" waitingTime="0.00" waitingCount="0" stopTime="0.00" timeLoss="2.36" rerouteNo="1" devices="tripinfo_167 routing_167" vType="DEFAULT_VEHTYPE" speedFactor="1.03" vaporized=""/>
    <tripinfo id="1" depart="1.00" departLane="-533070740_0" departPos="5.10" departSpeed="0.00" departDelay="0.00" arrival="385.00" arrivalLane="-523130457#0_1" arrivalPos="73.41" arrivalSpeed="13.73" duration="384.00" routeLength="226.11" waitingTime="349.00" waitingCount="3" stopTime="0.00" timeLoss="369.29" rerouteNo="1" devices="tripinfo_1 routing_1" vType="DEFAULT_VEHTYPE" speedFactor="0.94" vaporized=""/>
    <tripinfo id="544" depart="544.00" departLane="-740172328#0_0" departPos="5.10" departSpeed="0.00" departDelay="0.00" arrival="564.00" arrivalLane="-523130457#0_0" arrivalPos="73.41" arrivalSpeed="10.35" duration="20.00" routeLength="135.82" waitingTime="0.00" waitingCount="0" stopTime="0.00" timeLoss="11.95" rerouteNo="1" devices="tripinfo_544 routing_544" vType="DEFAULT_VEHTYPE" speedFactor="1.01" vaporized=""/>
    <tripinfo id="21" depart="21.00" departLane="-533018345#1_0" departPos="5.10" departSpeed="0.00" departDelay="0.00" arrival="579.00" arrivalLane="-524529904#3_0" arrivalPos="2.74" arrivalSpeed="0.00" duration="558.00" routeLength="126.27" waitingTime="536.00" waitingCount="3" stopTime="0.00" timeLoss="546.22" rerouteNo="1" devices="tripinfo_21 routing_21" vType="DEFAULT_VEHTYPE" speedFactor="1.01" vaporized="teleport"/>
    <tripinfo id="16" depart="16.00" departLane="523130457#0_0" departPos="5.10" departSpeed="0.00" departDelay="0.00" arrival="623.00" arrivalLane="740172328#0_0" arrivalPos="19.04" arrivalSpeed="5.90" duration="607.00" routeLength="136.59" waitingTime="587.00" waitingCount="2" stopTime="0.00" timeLoss="598.01" rerouteNo="1" devices="tripinfo_16 routing_16" vType="DEFAULT_VEHTYPE" speedFactor="0.88" vaporized=""/>
    <tripinfo id="52" depart="52.00" departLane="-533070740_0" departPos="5.10" departSpeed="0.00" departDelay="0.00" arrival="631.00" arrivalLane="133632492#2_0" arrivalPos="25.18" arrivalSpeed="0.00" duration="579.00" routeLength="109.24" waitingTime="561.00" waitingCount="2" stopTime="0.00" timeLoss="571.37" rerouteNo="1" devices="tripinfo_52 routing_52" vType="DEFAULT_VEHTYPE" speedFactor="1.02" vaporized="teleport"/>
    <tripinfo id="45" depart="45.00" departLane="-524529904#0_0" departPos="4.70" departSpeed="0.00" departDelay="0.00" arrival="643.00" arrivalLane="133632492#2_0" arrivalPos="25.18" arrivalSpeed="0.00" duration="598.00" routeLength="234.89" waitingTime="561.00" waitingCount="3" stopTime="0.00" timeLoss="582.16" rerouteNo="1" devices="tripinfo_45 routing_45" vType="DEFAULT_VEHTYPE" speedFactor="1.09" vaporized="teleport"/>
    <tripinfo id="150" depart="150.00" departLane="533070744#2_0" departPos="5.10" departSpeed="0.00" departDelay="0.00" arrival="650.00" arrivalLane="-533070744#3_2" arrivalPos="13.40" arrivalSpeed="7.10" duration="500.00" routeLength="112.05" waitingTime="473.00" waitingCount="2" stopTime="0.00" timeLoss="492.06" rerouteNo="1" devices="tripinfo_150 routing_150" vType="DEFAULT_VEHTYPE" speedFactor="0.96" vaporized=""/>
    <tripinfo id="647" depart="647.00" departLane="-740172328#1_0" departPos="0.20" departSpeed="0.00" departDelay="0.00" arrival="652.00" arrivalLane="-740172328#0_0" arrivalPos="19.04" arrivalSpeed="9.16" duration="5.00" routeLength="19.92" waitingTime="0.00" waitingCount="0" stopTime="0.00" timeLoss="3.48" rerouteNo="0" devices="tripinfo_647 routing_647" vType="DEFAULT_VEHTYPE" speedFactor="0.97" vaporized=""/>
    <tripinfo id="8" depart="8.00" departLane="-533018345#1_0" departPos="5.10" departSpeed="0.00" departDelay="0.00" arrival="653.00" arrivalLane="-740172328#0_0" arrivalPos="19.04" arrivalSpeed="15.50" duration="645.00" routeLength="140.45" waitingTime="607.00" waitingCount="4" stopTime="0.00" timeLoss="630.62" rerouteNo="1" devices="tripinfo_8 routing_8" vType="DEFAULT_VEHTYPE" speedFactor="0.94" vaporized=""/>
    <tripinfo id="42" depart="42.00" departLane="133632492#2_0" departPos="5.10" departSpeed="0.00" departDelay="0.00" arrival="670.00" arrivalLane="-523130457#0_0" arrivalPos="73.41" arrivalSpeed="14.37" duration="628.00" routeLength="367.06" waitingTime="568.00" waitingCount="4" stopTime="0.00" timeLoss="601.14" rerouteNo="1" devices="tripinfo_42 routing_42" vType="DEFAULT_VEHTYPE" speedFactor="1.09" vaporized=""/>
    <tripinfo id="79" depart="79.00" departLane="-533018345#1_0" departPos="5.10" departSpeed="0.00" departDelay="0.00" arrival="676.00" arrivalLane="-523130457#0_0" arrivalPos="73.41" arrivalSpeed="14.05" duration="597.00" routeLength="236.59" waitingTime="551.00" waitingCount="2" stopTime="0.00" timeLoss="577.56" rerouteNo="1" devices="tripinfo_79 routing_79" vType="DEFAULT_VEHTYPE" speedFactor="1.09" vaporized=""/>
    <tripinfo id="56" depart="56.00" departLane="523130457#0_0" departPos="5.10" departSpeed="0.00" departDelay="0.00" arrival="677.00" arrivalLane="-523130457#0_0" arrivalPos="73.41" arrivalSpeed="14.81" duration="621.00" routeLength="292.99" waitingTime="561.00" waitingCount="6" stopTime="0.00" timeLoss="601.81" rerouteNo="1" devices="tripinfo_56 routing_56" vType="DEFAULT_VEHTYPE" speedFactor="0.90" vaporized=""/>
    <tripinfo id="40" depart="40.00" departLane="523130457#0_0" departPos="5.10" departSpeed="0.00" departDelay="0.00" arrival="679.00" arrivalLane="-523130478_0" arrivalPos="12.61" arrivalSpeed="3.88" duration="639.00" routeLength="206.96" waitingTime="585.00" waitingCount="5" stopTime="0.00" timeLoss="627.27" rerouteNo="1" devices="tripinfo_40 routing_40" vType="DEFAULT_VEHTYPE" speedFactor="1.03" vaporized=""/>
    <tripinfo id="663" depart="664.00" departLane="-740172328#0_0" departPos="5.10" departSpeed="0.00" departDelay="1.00" arrival="683.00" arrivalLane="-523130457#0_0" arrivalPos="73.41" arrivalSpeed="14.03" duration="19.00" routeLength="135.82" waitingTime="0.00" waitingCount="0" stopTime="0.00" timeLoss="12.12" rerouteNo="1" devices="tripinfo_663 routing_663" vType="DEFAULT_VEHTYPE" speedFactor="1.19" vaporized=""/>
    <tripinfo id="136" depart="136.00" departLane="524529904#0_0" departPos="4.70" departSpeed="0.00" departDelay="0.00" arrival="694.00" arrivalLane="533070744#3_1" arrivalPos="13.40" arrivalSpeed="0.00" duration="558.00" routeLength="69.27" waitingTime="524.00" waitingCount="3" stopTime="0.00" timeLoss="536.83" rerouteNo="1" devices="tripinfo_136 routing_136" vType="DEFAULT_VEHTYPE" speedFactor="1.12" vaporized="teleport"/>
    <tripinfo id="696" depart="696.00" departLane="-523130478_0" departPos="5.10" departSpeed="0.00" departDelay="0.00" arrival="699.00" arrivalLane="-523130478_0" arrivalPos="12.61" arrivalSpeed="5.52" duration="3.00" routeLength="7.51" waitingTime="0.00" waitingCount="0" stopTime="0.00" timeLoss="2.40" rerouteNo="1" devices="tripinfo_696 routing_696" vType="DEFAULT_VEHTYPE" speedFactor="1.10" vaporized=""/>
    <tripinfo id="59" depart="60.00" departLane="523130457#0_0" departPos="5.10" departSpeed="0.00" departDelay="1.00" arrival="700.00" arrivalLane="-523130457#0_0" arrivalPos="73.41" arrivalSpeed="17.15" duration="640.00" routeLength="292.99" waitingTime="565.00" waitingCount="7" stopTime="0.00" timeLoss="621.39" rerouteNo="1" devices="tripinfo_59 routing_59" vType="DEFAULT_VEHTYPE" speedFactor="0.97" vaporized=""/>
    <tripinfo id="78" depart="360.00" departLane="-533070744#3_0" departPos="5.10" departSpeed="0.00" departDelay="282.00" arrival="703.00" arrivalLane="-740172328#0_0" arrivalPos="19.04" arrivalSpeed="17.40" duration="343.00" routeLength="45.40" waitingTime="301.00" waitingCount="1" stopTime="0.00" timeLoss="305.63" rerouteNo="1" devices="tripinfo_78 routing_78" vType="DEFAULT_VEHTYPE" speedFactor="1.01" vaporized=""/>
    <tripinfo id="118" depart="118.00" departLane="533070744#2_0" departPos="5.10" departSpeed="0.00" departDelay="0.00" arrival="731.00" arrivalLane="-523130478_0" arrivalPos="12.61" arrivalSpeed="5.06" duration="613.00" routeLength="184.85" waitingTime="539.00" waitingCount="2" stopTime="0.00" timeLoss="555.91" rerouteNo="1" devices="tripinfo_118 routing_118" vType="DEFAULT_VEHTYPE" speedFactor="0.99" vaporized=""/>
    <tripinfo id="82" depart="82.00" departLane="533070740_0" departPos="5.10" departSpeed="0.00" departDelay="0.00" arrival="756.00" arrivalLane="-523130457#0_0" arrivalPos="73.41" arrivalSpeed="17.64" duration="674.00" routeLength="232.10" waitingTime="597.00" waitingCount="4" stopTime="0.00" timeLoss="625.11" rerouteNo="1" devices="tripinfo_82 routing_82" vType="DEFAULT_VEHTYPE" speedFactor="1.02" vaporized=""/>
    <tripinfo id="143" depart="143.00" departLane="524529905#1_0" departPos="0.20" departSpeed="0.00" departDelay="0.00" arrival="774.00" arrivalLane="-523130457#0_0" arrivalPos="73.41" arrivalSpeed="17.21" duration="631.00" routeLength="169.03" waitingTime="602.00" waitingCount="2" stopTime="0.00" timeLoss="614.25" rerouteNo="1" devices="tripinfo_143 routing_143" vType="DEFAULT_VEHTYPE" speedFactor="1.13" vaporized=""/>
    <tripinfo id="26" depart="26.00" departLane="-533070740_0" departPos="5.10" departSpeed="0.00" departDelay="0.00" arrival="849.00" arrivalLane="533070744#3_0" arrivalPos="13.40" arrivalSpeed="0.00" duration="823.00" routeLength="98.51" waitingTime="783.00" waitingCount="6" stopTime="0.00" timeLoss="802.55" rerouteNo="1" devices="tripinfo_26 routing_26" vType="DEFAULT_VEHTYPE" speedFactor="0.92" vaporized="teleport"/>
    <tripinfo id="64" depart="64.00" departLane="533070740_0" departPos="5.10" departSpeed="0.00" departDelay="0.00" arrival="922.00" arrivalLane="533018345#1_0" arrivalPos="43.54" arrivalSpeed="10.05" duration="858.00" routeLength="193.19" waitingTime="811.00" waitingCount="4" stopTime="0.00" timeLoss="838.11" rerouteNo="1" devices="tripinfo_64 routing_64" vType="DEFAULT_VEHTYPE" speedFactor="0.94" vaporized=""/>
    <tripinfo id="99" depart="319.00" departLane="740172328#1_0" departPos="0.20" departSpeed="0.00" departDelay="220.00" arrival="957.00" arrivalLane="533018345#1_0" arrivalPos="43.54" arrivalSpeed="11.65" duration="638.00" routeLength="99.71" waitingTime="612.00" waitingCount="4" stopTime="0.00" timeLoss="626.40" rerouteNo="1" devices="tripinfo_99 routing_99" vType="DEFAULT_VEHTYPE" speedFactor="1.10" vaporized=""/>
    <tripinfo id="80" depart="80.00" departLane="-133632492#4_0" departPos="2.44" departSpeed="0.00" departDelay="0.00" arrival="961.00" arrivalLane="133632492#2_0" arrivalPos="25.18" arrivalSpeed="10.67" duration="881.00" routeLength="64.25" waitingTime="857.00" waitingCount="4" stopTime="0.00" timeLoss="871.84" rerouteNo="1" devices="tripinfo_80 routing_80" vType="DEFAULT_VEHTYPE" speedFactor="1.03" vaporized=""/>
    <tripinfo id="71" depart="71.00" departLane="-533070740_0" departPos="5.10" departSpeed="0.00" departDelay="0.00" arrival="978.00" arrivalLane="533070740_1" arrivalPos="15.64" arrivalSpeed="0.00" duration="907.00" routeLength="113.86" waitingTime="849.00" waitingCount="4" stopTime="0.00" timeLoss="870.11" rerouteNo="1" devices="tripinfo_71 routing_71" vType="DEFAULT_VEHTYPE" speedFactor="0.97" vaporized="teleport"/>
    <tripinfo id="95" depart="95.00" departLane="133632492#2_0" departPos="5.10" departSpeed="0.00" departDelay="0.00" arrival="988.00" arrivalLane="-524529904#2_1" arrivalPos="5.61" arrivalSpeed="15.80" duration="893.00" routeLength="194.02" waitingTime="822.00" waitingCount="5" stopTime="0.00" timeLoss="846.14" rerouteNo="1" devices="tripinfo_95 routing_95" vType="DEFAULT_VEHTYPE" speedFactor="1.06" vaporized=""/>
    <tripinfo id="480" depart="682.00" departLane="524529904#2_0" departPos="5.10" departSpeed="0.00" departDelay="202.00" arrival="989.00" arrivalLane="-740172328#0_1" arrivalPos="19.04" arrivalSpeed="0.00" duration="307.00" routeLength="23.12" waitingTime="301.00" waitingCount="1" stopTime="0.00" timeLoss="301.00" rerouteNo="1" devices="tripinfo_480 routing_480" vType="DEFAULT_VEHTYPE" speedFactor="1.03" vaporized="teleport"/>
    <tripinfo id="461" depart="627.00" departLane="523130457#2_0" departPos="0.20" departSpeed="0.00" departDelay="166.00" arrival="993.00" arrivalLane="533070744#2_1" arrivalPos="15.98" arrivalSpeed="0.00" duration="366.00" routeLength="51.24" waitingTime="332.00" waitingCount="2" stopTime="0.00" timeLoss="338.23" rerouteNo="1" devices="tripinfo_461 routing_461" vType="DEFAULT_VEHTYPE" speedFactor="0.92" vaporized="teleport"/>
    <tripinfo id="12" depart="12.00" departLane="740172328#0_0" departPos="5.10" departSpeed="0.00" departDelay="0.00" arrival="1004.00" arrivalLane="-524529905#0_0" arrivalPos="67.72" arrivalSpeed="8.06" duration="992.00" routeLength="161.64" waitingTime="960.00" waitingCount="5" stopTime="0.00" timeLoss="978.29" rerouteNo="1" devices="tripinfo_12 routing_12" vType="DEFAULT_VEHTYPE" speedFactor="1.05" vaporized=""/>
    <tripinfo id="24" depart="26.00" departLane="523130478_0" departPos="5.10" departSpeed="0.00" departDelay="2.00" arrival="1006.00" arrivalLane="-524529905#0_0" arrivalPos="67.72" arrivalSpeed="9.93" duration="980.00" routeLength="198.19" waitingTime="940.00" waitingCount="4" stopTime="0.00" timeLoss="960.79" rerouteNo="1" devices="tripinfo_24 routing_24" vType="DEFAULT_VEHTYPE" speedFactor="0.83" vaporized=""/>
    <tripinfo id="124" depart="374.00" departLane="524529904#2_0" departPos="5.10" departSpeed="0.00" departDelay="250.00" arrival="1008.00" arrivalLane="-524529905#0_0" arrivalPos="67.72" arrivalSpeed="11.26" duration="634.00" routeLength="122.64" waitingTime="611.00" waitingCount="3" stopTime="0.00" timeLoss="620.46" rerouteNo="1" devices="tripinfo_124 routing_124" vType="DEFAULT_VEHTYPE" speedFactor="1.06" vaporized=""/>
    <tripinfo id="27" depart="27.00" departLane="523130478_0" departPos="5.10" departSpeed="0.00" departDelay="0.00" arrival="1012.00" arrivalLane="1060905398_0" arrivalPos="4.71" arrivalSpeed="16.18" duration="985.00" routeLength="107.25" waitingTime="931.00" waitingCount="3" stopTime="0.00" timeLoss="945.87" rerouteNo="1" devices="tripinfo_27 routing_27" vType="DEFAULT_VEHTYPE" speedFactor="0.95" vaporized=""/>
    <tripinfo id="732" depart="732.00" departLane="-524529904#2_0" departPos="5.10" departSpeed="0.00" departDelay="0.00" arrival="1017.00" arrivalLane="-524529905#0_0" arrivalPos="67.72" arrivalSpeed="11.36" duration="285.00" routeLength="101.26" waitingTime="266.00" waitingCount="2" stopTime="0.00" timeLoss="278.63" rerouteNo="1" devices="tripinfo_732 routing_732" vType="DEFAULT_VEHTYPE" speedFactor="1.03" vaporized=""/>
    <tripinfo id="370" depart="677.00" departLane="524529904#2_0" departPos="5.10" departSpeed="0.00" departDelay="307.00" arrival="1018.00" arrivalLane="533070740_1" arrivalPos="15.64" arrivalSpeed="0.00" duration="341.00" routeLength="59.78" waitingTime="302.00" waitingCount="2" stopTime="0.00" timeLoss="305.43" rerouteNo="1" devices="tripinfo_370 routing_370" vType="DEFAULT_VEHTYPE" speedFactor="1.11" vaporized="teleport"/>